LAMMPS data file via write_data, version 15 Sep 2022, timestep = 144

11648 atoms
1 atom types

-53.92143420446703 53.92143420446703 xlo xhi
-53.92143420446703 53.92143420446703 ylo yhi
-11.438463533184867 11.438463533184867 zlo zhi

Masses

1 180.948

Atoms # atomic

6838 1 -16.019873688590472 -50.87800068434112 10.391443 0 0 -1
6839 1 -16.01987368852461 -50.878000684273964 -9.625868 0 0 0
6285 1 -13.444353617071648 -50.896978545302986 -11.383632 0 0 0
5730 1 -8.152277137794677 -50.78697340072862 -12.152732 0 0 0
5731 1 -8.1522771344666 -50.786973401717034 -9.293117 0 0 0
6289 1 -10.786545676432093 -50.850681216213026 -10.342196 0 0 0
5173 1 -5.524439076321065 -50.734890339584666 -11.030198 0 0 0
5174 1 -3.9552860136457717 -52.67730232323453 10.686075 0 0 -1
5175 1 -3.955285973071887 -52.67730232738703 -9.331236 0 0 0
5179 1 -2.724814057867128 -50.46712312796494 -10.245243 0 0 0
4623 1 -1.3199494612616407 -52.59901353297838 -11.185598 0 0 0
4625 1 0.003613490298326169 -50.41386238118488 10.724861 0 0 -1
4626 1 0.003613455178404899 -50.41386226199864 -9.292450 0 0 0
4627 1 1.3436447690467748 -52.59728535269699 -10.262698 0 0 0
4081 1 2.7332734875461626 -50.45702784670255 -11.196873 0 0 0
4082 1 3.976028625293614 -52.678852459779876 -12.099571 0 0 0
4083 1 3.976028626238006 -52.678852446659924 -9.239956 0 0 0
4087 1 5.534645898199321 -50.72740506915611 -10.412030 0 0 0
3552 1 8.157778620585509 -50.78568530051508 10.728133 0 0 -1
3553 1 8.157778627791156 -50.78568530205996 -9.289178 0 0 0
3034 1 10.789257445276544 -50.8502243384444 -11.099873 0 0 0
3038 1 13.44591286199192 -50.896780670858966 -10.058532 0 0 0
2537 1 16.020995037136537 -50.87781841082172 -11.816339 0 0 0
2538 1 16.02099503695145 -50.87781841104221 -8.956723 0 0 0
7384 1 -20.15069511181739 -48.649345706354154 10.404071 0 0 -1
7385 1 -20.15069511188624 -48.64934570630056 -9.613240 0 0 0
6837 1 -17.556370038564165 -48.78656135193382 -11.319393 0 0 0
6843 1 -14.825548287453747 -48.63817721636225 -10.457196 0 0 0
6287 1 -12.150827683139825 -48.60273017561547 10.594629 0 0 -1
6288 1 -12.150827682993727 -48.60273017585108 -9.422683 0 0 0
5729 1 -9.4888102560367 -48.54071910351753 -11.248584 0 0 0
5735 1 -6.8326936254042225 -48.4539164118384 -10.210070 0 0 0
5177 1 -4.161283561458269 -48.34780636174082 -12.080517 0 0 0
5178 1 -4.161283555175156 -48.34780637406885 -9.220900 0 0 0
4624 1 -1.3831033366760908 -48.20373051573979 -11.184331 0 0 0
4632 1 1.3847655645036026 -48.200337683629 -10.256848 0 0 0
4085 1 4.164887306152403 -48.34291437195773 10.654717 0 0 -1
4086 1 4.164887308006488 -48.342914370217315 -9.362594 0 0 0
3551 1 6.836936558854264 -48.44963531034949 -11.233336 0 0 0
3557 1 9.491582395472866 -48.53907211648649 -10.194200 0 0 0
3036 1 12.152516148424452 -48.60201756601043 -12.019725 0 0 0
3037 1 12.152516149093056 -48.60201756627152 -9.160108 0 0 0
2536 1 14.826674222617752 -48.637784087304865 -10.985142 0 0 0
2542 1 17.557151433480183 -48.786260168621304 -10.122910 0 0 0
2063 1 20.151306985138692 -48.64909546781618 -11.829139 0 0 0
2064 1 20.15130698468804 -48.64909546791858 -8.969524 0 0 0
8442 1 -26.882635577481715 -46.33019569685864 -10.738502 0 0 0
7918 1 -24.317717312839076 -46.42585905965563 10.428330 0 0 -1
7919 1 -24.31771731264473 -46.425859059765955 -9.588981 0 0 0
7383 1 -21.645861530642236 -46.540257767656975 -11.329291 0 0 0
7389 1 -18.914545231863517 -46.427638919357335 -10.473831 0 0 0
6841 1 -16.246456285688524 -46.39823517496924 10.562123 0 0 -1
6842 1 -16.246456285247064 -46.39823517502963 -9.455188 0 0 0
6286 1 -13.534798256632554 -46.289001765104146 -11.346661 0 0 0
5733 1 -8.172518561327642 -46.15975573328574 -12.174230 0 0 0
5734 1 -8.172518562838246 -46.15975573205751 -9.314615 0 0 0
6294 1 -10.851270803659581 -46.23000343837566 -10.335736 0 0 0
5176 1 -5.483843640631433 -46.08600119014828 -11.170408 0 0 0
5186 1 -2.770427196551674 -46.01542023267339 -10.207396 0 0 0
4630 1 -0.00032123532112442204 -45.96673662049217 -12.150501 0 0 0
4631 1 -0.00032123628217432977 -45.966736623469046 -9.290885 0 0 0
4084 1 2.7710903986416784 -46.0137025065279 -11.234738 0 0 0
4092 1 5.485583227775253 -46.08289520219953 -10.272740 0 0 0
3555 1 8.174551190526344 -46.1576114848073 10.748450 0 0 -1
3556 1 8.174551196453388 -46.15761148028099 -9.268861 0 0 0
3035 1 10.852815780862032 -46.22886795254504 -11.106936 0 0 0
3043 1 13.535896053433936 -46.28838648348116 -10.095788 0 0 0
2540 1 16.247233109031328 -46.397809713647625 -11.987207 0 0 0
2541 1 16.24723310840406 -46.39780971384352 -9.127590 0 0 0
2062 1 18.915140627595505 -46.427326602701505 -10.968618 0 0 0
2068 1 21.646349157025746 -46.5399952549474 -10.113192 0 0 0
1613 1 24.31814621758545 -46.42564769395826 -11.853594 0 0 0
1614 1 24.318146217111707 -46.42564769433144 -8.993979 0 0 0
1197 1 26.88304972229142 -46.32998778633524 -10.704136 0 0 0
8439 1 -29.768129875595637 -41.949182935038976 -11.416170 0 0 0
8946 1 -32.34830113240451 -41.74975948325724 10.277241 0 0 -1
8947 1 -32.34830113180766 -41.749759483530816 -9.740070 0 0 0
8440 1 -28.288044598155032 -44.180797375175835 10.387203 0 0 -1
8441 1 -28.288044597682525 -44.180797375516754 -9.630108 0 0 0
8447 1 -27.04993987249188 -41.8529622999272 -10.550375 0 0 0
7917 1 -25.63144903500489 -44.11592432205057 -11.543985 0 0 0
7921 1 -24.32211896359325 -41.801509537238665 10.430882 0 0 -1
7922 1 -24.32211896334695 -41.80150953732259 -9.586429 0 0 0
7386 1 -21.642154356926707 -41.80829760888696 -11.438571 0 0 0
7387 1 -20.30784759299575 -44.16168176617846 10.529909 0 0 -1
7388 1 -20.307847592861528 -44.16168176618867 -9.487402 0 0 0
7923 1 -22.96162741816124 -44.16259821809977 -10.503822 0 0 0
6840 1 -17.602840815303942 -44.075540086032554 -11.384000 0 0 0
7398 1 -18.968020705917706 -41.78109854271202 -10.439113 0 0 0
6848 1 -16.275453856026896 -41.72022191182433 -12.314124 0 0 0
6849 1 -16.275453855675813 -41.72022191196001 -9.454508 0 0 0
6850 1 -14.918853929835159 -44.02086823396768 -10.389283 0 0 0
6291 1 -13.58314115958466 -41.66249669459585 -11.321272 0 0 0
6292 1 -12.219594500522355 -43.94317627222516 -12.262683 0 0 0
6293 1 -12.219594499911274 -43.94317627255765 -9.403067 0 0 0
5732 1 -9.525262903851305 -43.87911190172923 -11.260683 0 0 0
5742 1 -8.17703755199893 -41.54317555410834 -12.198038 0 0 0
5743 1 -8.177037551285293 -41.54317555465418 -9.338422 0 0 0
6303 1 -10.882301151244299 -41.59879394759403 -10.330260 0 0 0
5183 1 -5.462873187432703 -41.49732163127146 -11.214164 0 0 0
5744 1 -6.826421236782027 -43.8169052817 -10.260514 0 0 0
5184 1 -4.112647282341575 -43.763946300966325 -12.136702 0 0 0
5185 1 -4.11264728177905 -43.76394630085431 -9.277086 0 0 0
5197 1 -2.7362821024321766 -41.468441961607766 -10.244142 0 0 0
4629 1 -1.3782402575660524 -43.732247686184365 -11.183985 0 0 0
4639 1 2.953555266144072e-05 -41.46130854619013 10.725867 0 0 -1
4640 1 2.953581948173174e-05 -41.461308548125366 -9.291445 0 0 0
4641 1 1.378145049295489 -43.731880080375895 -10.258262 0 0 0
4089 1 2.736384513419771 -41.46805686871072 -11.198292 0 0 0
4090 1 4.112883608810582 -43.76277895168885 10.711507 0 0 -1
4091 1 4.112883608666392 -43.76277894815969 -9.305805 0 0 0
3554 1 6.827340708556733 -43.8152979243113 -11.182255 0 0 0
4101 1 5.4631523541601545 -41.4965673464752 -10.228311 0 0 0
3562 1 8.177588051948517 -41.542254640211766 10.772784 0 0 -1
3563 1 8.177588051070927 -41.54225464116792 -9.244527 0 0 0
3564 1 9.52634380869269 -43.87785915506545 -10.182064 0 0 0
3040 1 10.882967688781273 -41.59800615173948 -11.112308 0 0 0
3041 1 12.220527632194223 -43.94238322790965 10.837442 0 0 -1
3042 1 12.220527631566735 -43.94238322829377 -9.179869 0 0 0
3052 1 13.583748203181448 -41.661930595087206 -10.121245 0 0 0
2539 1 14.919584437246773 -44.020348046942146 -11.053182 0 0 0
2545 1 16.275951826040146 -41.71980771774339 10.888912 0 0 -1
2546 1 16.2759518256915 -41.719807717952506 -9.128399 0 0 0
2065 1 18.96843013200712 -41.78076978339185 -11.003444 0 0 0
2547 1 17.603409843455943 -44.075170392382994 -10.058483 0 0 0
1612 1 22.96203116320555 -44.1623585359042 -10.938771 0 0 0
2066 1 20.308303594934888 -44.16137979380163 -11.955123 0 0 0
2067 1 20.30830359463578 -44.161379793856035 -9.095507 0 0 0
2073 1 21.642517586368232 -41.8080328345924 -10.004035 0 0 0
1616 1 24.322455245563237 -41.8012867400558 -11.856236 0 0 0
1617 1 24.32245524563028 -41.80128674016704 -8.996621 0 0 0
1618 1 25.63182428483061 -44.115715959224 -9.898670 0 0 0
1198 1 27.050253420688353 -41.85274461850503 -10.892340 0 0 0
1199 1 28.288409606064224 -44.180579267118596 -11.812584 0 0 0
1200 1 28.288409605838627 -44.180579267387856 -8.952967 0 0 0
1204 1 29.768428262554362 -41.94894831530014 -10.026574 0 0 0
820 1 32.348579828890514 -41.749510688379644 -11.702708 0 0 0
821 1 32.34857982889783 -41.74951068741882 -8.843092 0 0 0
9428 1 -36.398963439800134 -39.372868044438356 10.180251 0 0 -1
9429 1 -36.39896343966296 -39.37286804442047 -9.837060 0 0 0
8945 1 -33.81164413957579 -39.60015500955328 -11.493264 0 0 0
8951 1 -31.085666561596174 -39.548029203078265 -10.613775 0 0 0
8445 1 -28.421325474578328 -39.57941474119162 10.434140 0 0 -1
8446 1 -28.421325474206263 -39.57941474151628 -9.583172 0 0 0
7920 1 -25.71017076106825 -39.51217649715082 -11.488785 0 0 0
7396 1 -20.31524159384476 -39.457509718261186 10.501026 0 0 -1
7397 1 -20.315241593667643 -39.457509718275126 -9.516285 0 0 0
7932 1 -23.00378749783015 -39.47764310244633 -10.513158 0 0 0
6847 1 -17.630122681912365 -39.4200002431539 -11.380339 0 0 0
6861 1 -14.936111200558624 -39.368527863717524 -10.389386 0 0 0
6301 1 -12.237451976040258 -39.316533546076336 -12.257113 0 0 0
6302 1 -12.237451975601127 -39.31653354646711 -9.397497 0 0 0
5741 1 -9.530544035597119 -39.26561076078564 -11.267916 0 0 0
5757 1 -6.816112928080792 -39.22340049706855 -10.284061 0 0 0
5195 1 -4.093533190286335 -39.19420791145689 -12.169527 0 0 0
5196 1 -4.093533189600061 -39.19420791342381 -9.309912 0 0 0
4638 1 -1.3646291127700518 -39.181116015662376 -11.203698 0 0 0
4652 1 1.3647362787312225 -39.18098438294471 -10.238737 0 0 0
4099 1 4.0936808483896625 -39.19385191643077 10.744408 0 0 -1
4100 1 4.093680847905135 -39.193851918694016 -9.272903 0 0 0
3561 1 6.816376314935472 -39.222871022798415 -11.158393 0 0 0
3575 1 9.530938512869374 -39.26501999786651 -10.174585 0 0 0
3050 1 12.237885110538958 -39.31600155765202 10.831894 0 0 -1
3051 1 12.237885110168923 -39.316001558099764 -9.185417 0 0 0
2544 1 14.936500888910304 -39.36810670825025 -11.053164 0 0 0
2556 1 17.630464063264466 -39.41966082101915 -10.062240 0 0 0
1615 1 23.004079292333262 -39.47740234890544 -10.929518 0 0 0
2071 1 20.315554695708133 -39.45722766587587 -11.926337 0 0 0
2072 1 20.315554695756738 -39.457227665907766 -9.066721 0 0 0
1625 1 25.710440291854624 -39.51195023511278 -9.953946 0 0 0
1202 1 28.421573627255572 -39.57918140324786 -11.859599 0 0 0
1203 1 28.421573627244246 -39.57918140293378 -8.999984 0 0 0
819 1 31.085897746706394 -39.54778508790324 -10.829039 0 0 0
825 1 33.81186439875204 -39.599885080201354 -9.949565 0 0 0
494 1 36.39917829793551 -39.37260128644556 -11.605825 0 0 0
495 1 36.39917829810039 -39.37260128642862 -8.746210 0 0 0
9427 1 -37.763521301046524 -37.18551146588745 -11.638005 0 0 0
9433 1 -35.110993963522574 -37.18921483370336 -10.681696 0 0 0
8444 1 -29.74872438910403 -37.21760988168867 -11.533371 0 0 0
8949 1 -32.449668256182214 -37.24931014548711 10.373444 0 0 -1
8950 1 -32.44966825601418 -37.2493101457745 -9.643867 0 0 0
8456 1 -27.067994966589456 -37.21084439246899 -10.542326 0 0 0
7930 1 -24.37040720195009 -37.17078386736906 10.447263 0 0 -1
7931 1 -24.370407201871338 -37.170783867442964 -9.570048 0 0 0
7395 1 -21.67190273612541 -37.139115723299795 -11.447005 0 0 0
7411 1 -18.979907480443703 -37.108640049665695 -10.454117 0 0 0
6859 1 -16.287163978681427 -37.06979693160946 -12.320158 0 0 0
6860 1 -16.287163978451588 -37.06979693161255 -9.460543 0 0 0
6300 1 -13.588300057264616 -37.02550072717393 -11.328742 0 0 0
5755 1 -8.170956643582775 -36.943821522812186 -12.212837 0 0 0
5756 1 -8.170956643218776 -36.94382152355307 -9.353222 0 0 0
6318 1 -10.883427369296076 -36.98234211083304 -10.338940 0 0 0
5194 1 -5.451153479757272 -36.91486649702117 -11.233522 0 0 0
5212 1 -2.7263912848872334 -36.89738810242167 -10.260906 0 0 0
4650 1 1.5433387903043558e-05 -36.89124481201702 10.725931 0 0 -1
4651 1 1.5433436548462922e-05 -36.89124481384424 -9.291380 0 0 0
4098 1 2.7264596515105506 -36.89723131049353 -11.181497 0 0 0
4114 1 5.4512950874510375 -36.91458085477327 -10.208916 0 0 0
3573 1 8.17116965779004 -36.94344011455696 10.787681 0 0 -1
3574 1 8.171169657504425 -36.94344011545926 -9.229630 0 0 0
3049 1 10.883683578608142 -36.981926824712204 -11.103577 0 0 0
3063 1 13.588568028703707 -37.02511759405339 -10.113817 0 0 0
2554 1 16.287426330708392 -37.069469724771764 10.894879 0 0 -1
2555 1 16.28742633065883 -37.069469724792256 -9.122432 0 0 0
2070 1 18.980161118772834 -37.10835551908829 -10.988513 0 0 0
2082 1 21.672143719085252 -37.13886043767606 -9.995679 0 0 0
1623 1 24.370629294570527 -37.17054433219007 -11.872696 0 0 0
1624 1 24.370629294665324 -37.17054433203956 -9.013079 0 0 0
1201 1 27.068196476332854 -37.210606431146395 -10.900465 0 0 0
1209 1 29.74890803109622 -37.217367055822194 -9.909465 0 0 0
493 1 35.11115646898392 -37.18895540160098 -10.761255 0 0 0
823 1 32.44983694833622 -37.24904988877116 -11.799014 0 0 0
824 1 32.4498369484981 -37.24904988848314 -8.939398 0 0 0
499 1 37.763691213947645 -37.18524822401607 -9.804996 0 0 0
9886 1 -40.493852733802576 -32.61106158503705 -12.515970 0 0 0
9887 1 -40.49385273412778 -32.61106158552093 -9.656355 0 0 0
9888 1 -39.129969809473124 -34.89462778472447 -10.646983 0 0 0
9430 1 -37.85787700487092 -32.58924880919157 -11.582927 0 0 0
9431 1 -36.490098162778445 -34.889023508728606 10.319234 0 0 -1
9432 1 -36.49009816274371 -34.88902350864569 -9.698078 0 0 0
8948 1 -33.775813333897645 -34.875670083731144 -11.588800 0 0 0
9442 1 -35.14301497585854 -32.55912285958069 -10.631947 0 0 0
8453 1 -29.758927896407148 -32.551561592775464 -11.539676 0 0 0
8960 1 -32.4455749737275 -32.55300519185747 10.354655 0 0 -1
8961 1 -32.445574973637335 -32.55300519185383 -9.662656 0 0 0
8962 1 -31.0999814729512 -34.89521464315464 -10.593441 0 0 0
8454 1 -28.409924922368923 -34.87791786984584 10.402546 0 0 -1
8455 1 -28.4099249223289 -34.87791787017079 -9.614765 0 0 0
8471 1 -27.068685033082573 -32.53548216139878 -10.559983 0 0 0
7929 1 -25.722258090410016 -34.85927944600258 -11.491123 0 0 0
7945 1 -24.37733178883188 -32.51442689750409 -12.437842 0 0 0
7946 1 -24.377331788952123 -32.51442689765501 -9.578226 0 0 0
7408 1 -21.68240473503675 -32.48691249805054 -11.454918 0 0 0
7409 1 -20.331730799700168 -34.79738403261766 -12.385352 0 0 0
7410 1 -20.331730799677548 -34.79738403268998 -9.525736 0 0 0
7947 1 -23.02756105631815 -34.82824527419589 -10.511485 0 0 0
6858 1 -17.63632968959562 -34.76481986642297 -11.394288 0 0 0
7428 1 -18.985542197791943 -32.457611292699596 -10.467917 0 0 0
6874 1 -16.286564687636663 -32.42705774090953 -12.337670 0 0 0
6875 1 -16.286564687639263 -32.42705774091679 -9.478054 0 0 0
6876 1 -14.937943759701904 -34.72880716387537 -10.402529 0 0 0
6315 1 -13.58364083758286 -32.395823238833934 -11.347447 0 0 0
6316 1 -12.2339642851669 -34.69174750164491 -12.271994 0 0 0
6317 1 -12.233964284938386 -34.69174750165036 -9.412378 0 0 0
5754 1 -9.524090758145714 -34.65787202160891 -11.284502 0 0 0
5772 1 -8.162219054461813 -32.34052790631995 -12.232092 0 0 0
5773 1 -8.162219054243344 -32.34052790640683 -9.372475 0 0 0
6337 1 -10.875504336842125 -32.36602594275072 -10.358617 0 0 0
5209 1 -5.444582971962412 -32.32138144692668 -11.249046 0 0 0
5774 1 -6.808089512321209 -34.630434074183746 -10.301325 0 0 0
5210 1 -4.087061083072727 -34.61133344677335 -12.181930 0 0 0
5211 1 -4.087061082934097 -34.611333447652704 -9.322314 0 0 0
5229 1 -2.7234554697844846 -32.30981389256732 -10.269175 0 0 0
4649 1 -1.3627809870080725 -34.60137864659161 -11.207243 0 0 0
4665 1 -1.2089202123946406e-05 -32.30600640591164 10.725927 0 0 -1
4666 1 -1.2089207573600919e-05 -32.30600640654048 -9.291384 0 0 0
4667 1 1.362784176571046 -34.601342797439465 -10.235142 0 0 0
4111 1 2.723433202670852 -32.30977487125159 -11.173228 0 0 0
4112 1 4.087101987704183 -34.611208716034554 10.756829 0 0 -1
4113 1 4.087101987612581 -34.611208717073296 -9.260483 0 0 0
3572 1 6.808174420271169 -34.63021463024715 -11.141138 0 0 0
4131 1 5.444579372597913 -32.3212812009223 -10.193408 0 0 0
3588 1 8.162254270751536 -32.34035703262365 10.806889 0 0 -1
3589 1 8.162254270570674 -32.34035703283051 -9.210422 0 0 0
3590 1 9.524215685144087 -34.65758664729904 -10.158010 0 0 0
3060 1 10.875581820523195 -32.36580290887279 -11.083943 0 0 0
3061 1 12.234124857036518 -34.691439507574216 10.846747 0 0 -1
3062 1 12.234124856901111 -34.691439507605885 -9.170564 0 0 0
3078 1 13.583750173604681 -32.39557457545728 -10.095150 0 0 0
2553 1 14.938126252616549 -34.72851259516035 -11.040064 0 0 0
2565 1 16.286688756895888 -32.42680481851939 10.912351 0 0 -1
2566 1 16.286688757029292 -32.426804818459345 -9.104960 0 0 0
2079 1 18.985669053788996 -32.457358186476924 -10.974760 0 0 0
2567 1 17.63651859255817 -34.764545953972096 -10.048344 0 0 0
1622 1 23.027733646962144 -34.82799368190742 -10.931266 0 0 0
2080 1 20.331915459529466 -34.79712400613382 10.959978 0 0 -1
2081 1 20.3319154596874 -34.79712400606967 -9.057334 0 0 0
2095 1 21.682527658591972 -32.48665705713849 -9.987828 0 0 0
1632 1 24.37744497836641 -32.514172661304904 11.012334 0 0 -1
1633 1 24.377444978464744 -32.514172661261476 -9.004978 0 0 0
1634 1 25.722413561913477 -34.85903274022323 -9.951684 0 0 0
1206 1 27.068787905571302 -32.535236657371186 -10.882892 0 0 0
1207 1 28.410064532061135 -34.87767387131252 -11.828091 0 0 0
1208 1 28.41006453212044 -34.87767387122454 -8.968474 0 0 0
822 1 31.100112627454912 -34.89496552325419 -10.849473 0 0 0
1218 1 29.759029315387632 -32.55132536717255 -9.903255 0 0 0
496 1 35.14313485195406 -32.55888850917756 -10.811150 0 0 0
828 1 32.445685631987566 -32.55277245192068 -11.780354 0 0 0
829 1 32.445685631939995 -32.552772452091546 -8.920738 0 0 0
830 1 33.775946267674236 -34.87542073936656 -9.854188 0 0 0
497 1 36.490235412214346 -34.88877312046245 -11.744989 0 0 0
498 1 36.49023541231119 -34.88877312114644 -8.885373 0 0 0
504 1 37.85800386707962 -32.58902038957518 -9.860253 0 0 0
251 1 39.13012424823172 -34.894394353542886 -10.796168 0 0 0
253 1 40.49398176856551 -32.610837573883906 11.090047 0 0 -1
254 1 40.49398176855301 -32.610837574246794 -8.927265 0 0 0
9885 1 -41.93695784635549 -30.34943188342176 -11.480786 0 0 0
10314 1 -44.50963983022607 -30.090921981902238 10.187393 0 0 -1
10315 1 -44.50963983081534 -30.090921982777722 -9.829919 0 0 0
9897 1 -39.22788134368779 -30.293044489996596 -10.614015 0 0 0
9440 1 -36.51041142044894 -30.25035978912624 -12.532533 0 0 0
9441 1 -36.510411420713744 -30.25035978919824 -9.672918 0 0 0
8959 1 -33.807727292520084 -30.231332420539445 -11.575938 0 0 0
8977 1 -31.11004516027887 -30.221235400282712 -10.605803 0 0 0
8469 1 -28.418318498607068 -30.211938945396447 -12.487428 0 0 0
8470 1 -28.418318498595774 -30.21193894553931 -9.627813 0 0 0
7944 1 -25.725479602730243 -30.195313275143068 -11.508118 0 0 0
7426 1 -20.33429655938159 -30.148846969014016 -12.401145 0 0 0
7427 1 -20.334296559512435 -30.148846969175217 -9.541530 0 0 0
7966 1 -23.03117416432564 -30.174075805317756 -10.526124 0 0 0
6873 1 -17.634928965089884 -30.122236691933253 -11.413754 0 0 0
6897 1 -14.932475212693657 -30.095487666354845 -10.424650 0 0 0
6335 1 -12.22593204998043 -30.069670270211567 -12.294957 0 0 0
6336 1 -12.225932050006621 -30.069670270194727 -9.435340 0 0 0
5771 1 -9.51485705524023 -30.046518887443 -11.306644 0 0 0
5795 1 -6.799645401946099 -30.02790147869922 -10.320116 0 0 0
5227 1 -4.081128238341311 -30.01527798919719 -12.195482 0 0 0
5228 1 -4.0811282382351814 -30.015277989297143 -9.335866 0 0 0
4664 1 -1.3606008912046943 -30.00916902570405 -11.212548 0 0 0
4686 1 1.3605509535486011 -30.009159553624126 -10.229858 0 0 0
4129 1 4.081085396257696 -30.015242000230135 10.770341 0 0 -1
4130 1 4.081085396169419 -30.01524200048664 -9.246970 0 0 0
3587 1 6.799625073933351 -30.027819317859304 -11.122396 0 0 0
3607 1 9.514871982493842 -30.04637608083463 -10.135920 0 0 0
3076 1 12.225977409979505 -30.06947560696776 10.869666 0 0 -1
3077 1 12.22597741007473 -30.069475606893523 -9.147645 0 0 0
2564 1 14.932537393421043 -30.095263572568488 -11.017980 0 0 0
2582 1 17.634998420836453 -30.121999318951634 -10.028911 0 0 0
1631 1 23.03124559326803 -30.17382185769016 -10.916699 0 0 0
2093 1 20.334369155625083 -30.148598918185876 10.975725 0 0 -1
2094 1 20.334369155829993 -30.148598918198488 -9.041586 0 0 0
1645 1 25.725548659901246 -30.195068425205505 -9.934779 0 0 0
1216 1 28.418391927584942 -30.211714368688472 11.061788 0 0 -1
1217 1 28.418391927459144 -30.21171436875782 -8.955523 0 0 0
827 1 31.110131137208022 -30.22102299291132 -10.837217 0 0 0
839 1 33.807823891877526 -30.2311146668346 -9.867168 0 0 0
502 1 36.510514355860956 -30.25013926441514 11.106655 0 0 -1
503 1 36.51051435593735 -30.25013926493273 -8.910656 0 0 0
252 1 39.22798920519655 -30.29282550024153 -10.829244 0 0 0
97 1 44.50977408786606 -30.090757874973566 -11.613424 0 0 0
98 1 44.50977408858295 -30.090757874001856 -8.753808 0 0 0
258 1 41.937071352032284 -30.349211553134026 -9.962494 0 0 0
10313 1 -45.85587305691664 -27.892126892804896 -11.628390 0 0 0
10319 1 -43.21010579015939 -27.91361292307946 -10.684014 0 0 0
9895 1 -40.56192423600245 -27.98517534642045 -12.515908 0 0 0
9896 1 -40.561924236961616 -27.985175346740764 -9.656292 0 0 0
9439 1 -37.86681746922544 -27.942332049815104 -11.574557 0 0 0
9459 1 -35.16642988521241 -27.91572878958992 -10.625517 0 0 0
8468 1 -29.769723548141364 -27.88747730287535 -11.554325 0 0 0
8975 1 -32.4664857629509 -27.899181686678848 -12.524440 0 0 0
8976 1 -32.466485763074175 -27.899181686537787 -9.664825 0 0 0
8492 1 -27.0750953935072 -27.87497473306789 -10.578458 0 0 0
7964 1 -24.37969682158375 -27.85812926960303 -12.459026 0 0 0
7965 1 -24.37969682161927 -27.85812926974422 -9.599410 0 0 0
7425 1 -21.682687432376948 -27.837765889953317 -11.476451 0 0 0
7449 1 -18.983254203233997 -27.8150528324221 -10.490988 0 0 0
6895 1 -16.28103790108603 -27.79191178228205 -12.362929 0 0 0
6896 1 -16.281037901137818 -27.791911782331276 -9.503312 0 0 0
6334 1 -13.575547865958528 -27.769539057239204 -11.373942 0 0 0
5793 1 -8.153443609205592 -27.73147364217809 -12.254890 0 0 0
5794 1 -8.15344360922458 -27.73147364214633 -9.395274 0 0 0
6360 1 -10.866339240260226 -27.74894411093331 -10.384478 0 0 0
5226 1 -5.437380484791296 -27.718499601456113 -11.266441 0 0 0
5250 1 -2.7191658824324736 -27.71062893812143 -10.278678 0 0 0
4684 1 -3.2415485642456e-05 -27.70798158837777 10.725902 0 0 -1
4685 1 -3.241548762395039e-05 -27.70798158848935 -9.291409 0 0 0
4128 1 2.7191045020364024 -27.710620846917198 -11.163779 0 0 0
4152 1 5.437331151959587 -27.718469723229965 -10.176069 0 0 0
3605 1 8.153414782306415 -27.731397915880546 10.829637 0 0 -1
3606 1 8.15341478233686 -27.731397915842894 -9.187674 0 0 0
3075 1 10.866331393862653 -27.7488059920141 -11.058129 0 0 0
3095 1 13.57555345895758 -27.769349131314947 -10.068693 0 0 0
2580 1 16.281052046368682 -27.791694725027433 10.937580 0 0 -1
2581 1 16.281052046631114 -27.79169472492438 -9.079732 0 0 0
2092 1 18.9832758477409 -27.814820804041783 -10.951729 0 0 0
2110 1 21.68271496474484 -27.83752298133144 -9.966365 0 0 0
1643 1 24.379730316716504 -27.857891549389475 11.033424 0 0 -1
1644 1 24.3797303167057 -27.85789154941497 -8.983887 0 0 0
1215 1 27.07513958295764 -27.87476053157192 -10.864515 0 0 0
1229 1 29.76978319069582 -27.887283716352307 -9.888700 0 0 0
501 1 35.16651774198678 -27.91552292807577 -10.817667 0 0 0
837 1 32.466560296124676 -27.898983961139628 11.098653 0 0 -1
838 1 32.46656029608596 -27.898983961363957 -8.918658 0 0 0
511 1 37.866922356673584 -27.94213014075145 -9.868712 0 0 0
256 1 40.56204525124944 -27.984974505702354 11.089880 0 0 -1
257 1 40.56204525146072 -27.984974505901473 -8.927431 0 0 0
96 1 43.210244368024796 -27.913444688542125 -10.759389 0 0 0
102 1 45.85603549111163 -27.8919856728111 -9.815093 0 0 0
10703 1 -48.445459943948705 -23.332072649214176 -12.419719 0 0 0
10704 1 -48.4454599431306 -23.332072649306884 -9.560102 0 0 0
10316 1 -45.912395566414176 -23.274333825855315 -11.561873 0 0 0
10705 1 -47.19675181749865 -25.588802748787323 -10.620013 0 0 0
9894 1 -41.87123336926498 -25.59361709074649 -11.602633 0 0 0
10317 1 -44.56680977449246 -25.59803080305833 -12.552851 0 0 0
10318 1 -44.56680977462106 -25.59803080339887 -9.693234 0 0 0
10334 1 -43.23293391705702 -23.257157345486938 -10.646147 0 0 0
9910 1 -40.54994820204105 -23.262903065225505 -12.556936 0 0 0
9911 1 -40.54994820109378 -23.26290306557591 -9.697320 0 0 0
9912 1 -39.206113434533606 -25.616941834923256 -10.627587 0 0 0
9456 1 -37.866441768855964 -23.26852863261261 -11.595455 0 0 0
9457 1 -36.51791759933523 -25.59675156383653 -12.536110 0 0 0
9458 1 -36.51791759991497 -25.596751564248315 -9.676494 0 0 0
8974 1 -33.82078681513498 -25.57925860500879 -11.580910 0 0 0
9480 1 -35.17312877273507 -23.257025545945563 -10.639394 0 0 0
8489 1 -29.777369057221 -23.2325401656235 -11.574825 0 0 0
8996 1 -32.475556339195904 -23.24420293402567 -12.539656 0 0 0
8997 1 -32.4755563394226 -23.24420293435959 -9.680040 0 0 0
8998 1 -31.12287651619933 -25.565601624413823 -10.617729 0 0 0
8490 1 -28.425804247851165 -25.553682516667884 -12.507350 0 0 0
8491 1 -28.42580424786288 -25.553682516607264 -9.647734 0 0 0
8516 1 -27.079221287637885 -23.221195591039375 -10.604922 0 0 0
7963 1 -25.72905806547005 -25.540392340546834 -11.532446 0 0 0
7987 1 -24.380519838219016 -23.208355352263776 -12.489895 0 0 0
7988 1 -24.380519838125153 -23.208355352325743 -9.630280 0 0 0
7446 1 -21.68048363745377 -23.193361656851213 -11.510373 0 0 0
7447 1 -20.331700356848874 -25.505458195967567 -12.429756 0 0 0
7448 1 -20.33170035690557 -25.505458196227416 -9.570140 0 0 0
7989 1 -23.031272525909 -25.52411607006415 -10.553295 0 0 0
6894 1 -17.6296815891667 -25.4857271153439 -11.443584 0 0 0
7473 1 -18.978539135150324 -23.177008639188372 -10.526518 0 0 0
6919 1 -16.274212976990867 -23.16049556528089 -12.398928 0 0 0
6920 1 -16.274212977037 -23.16049556536984 -9.539313 0 0 0
6921 1 -14.924848645790606 -25.466344889625375 -10.455248 0 0 0
6357 1 -13.567285267659662 -23.14471687677002 -11.409113 0 0 0
6358 1 -12.216986599294328 -25.448201987987503 -12.324964 0 0 0
6359 1 -12.216986599369562 -25.44820198796151 -9.465348 0 0 0
5792 1 -9.50603375046973 -25.4322030319907 -11.333987 0 0 0
5816 1 -8.145809625281188 -23.11822955884357 -12.282605 0 0 0
5817 1 -8.145809625330665 -23.11822955881124 -9.422988 0 0 0
6384 1 -10.857751334834113 -23.13035278892326 -10.417095 0 0 0
5247 1 -5.4318380815913985 -23.109183994205196 -11.286667 0 0 0
5818 1 -6.792256775722097 -25.41944097546689 -10.342231 0 0 0
5248 1 -4.07632085887748 -25.410695902091252 -12.209630 0 0 0
5249 1 -4.076320858873106 -25.410695902055373 -9.350013 0 0 0
5274 1 -2.7163554196492683 -23.103743368384578 -10.289406 0 0 0
4683 1 -1.3589778813076565 -25.40629535639254 -11.217351 0 0 0
4707 1 -5.389305089742536e-05 -23.101961824941473 10.725867 0 0 -1
4708 1 -5.38930791147904e-05 -23.10196182497076 -9.291444 0 0 0
4709 1 1.3588967828477423 -25.406296330058993 -10.225125 0 0 0
4149 1 2.7162538582917217 -23.103752955907353 -11.153111 0 0 0
4150 1 4.076247995057381 -25.41069301334558 10.784432 0 0 -1
4151 1 4.076247995030295 -25.410693013385053 -9.232879 0 0 0
3604 1 6.79219724326291 -25.419411293265295 -11.100328 0 0 0
4175 1 5.43174885127652 -23.10918406421506 -10.155889 0 0 0
3626 1 8.145727510427776 -23.118183020862276 10.857310 0 0 -1
3627 1 8.145727510485287 -23.118183020789676 -9.160001 0 0 0
3628 1 9.505984766479589 -25.432115529794977 -10.108622 0 0 0
3092 1 10.857670897590356 -23.13023838952377 -11.025552 0 0 0
3093 1 12.216944020494191 -25.448049390296642 10.899631 0 0 -1
3094 1 12.216944020690946 -25.4480493901689 -9.117680 0 0 0
3116 1 13.567209513694117 -23.14454996326835 -10.033560 0 0 0
2579 1 14.924813441510228 -25.466151019472974 -10.987417 0 0 0
2599 1 16.274145102020427 -23.16030299296418 10.973532 0 0 -1
2600 1 16.274145102254906 -23.160302992885693 -9.043780 0 0 0
2107 1 18.97848012996313 -23.17680547911091 -10.916274 0 0 0
2601 1 17.629655585836286 -25.48551460752689 -9.999125 0 0 0
1642 1 23.031268707012895 -25.52389324151273 -10.889616 0 0 0
2108 1 20.33168403182152 -25.505234558511315 11.004263 0 0 -1
2109 1 20.33168403200252 -25.50523455861824 -9.013048 0 0 0
2127 1 21.680438674659637 -23.193158796455442 -9.932530 0 0 0
1658 1 24.38049365606003 -23.208168396650553 11.064219 0 0 -1
1659 1 24.380493655957615 -23.208168396686585 -8.953092 0 0 0
1660 1 25.729070338098964 -25.540190587509226 -9.910539 0 0 0
1226 1 27.079216247526766 -23.22103784445935 -10.838120 0 0 0
1227 1 28.42583583365338 -25.55350638221659 11.081632 0 0 -1
1228 1 28.425835833449156 -25.55350638228526 -8.935679 0 0 0
836 1 31.12292816010191 -25.565429076090098 -10.825363 0 0 0
1244 1 29.777388910296136 -23.232396549610147 -9.868283 0 0 0
508 1 35.17317410956949 -23.25685139418084 -10.803964 0 0 0
848 1 32.475595363149445 -23.244042673368153 11.113749 0 0 -1
849 1 32.475595363211475 -23.244042673503053 -8.903562 0 0 0
850 1 33.82085720925816 -25.579072659698554 -9.862283 0 0 0
509 1 36.51800310816373 -25.596569910479634 11.110120 0 0 -1
510 1 36.51800310858792 -25.596569911034884 -8.907191 0 0 0
520 1 37.866479441333226 -23.26835776636522 -9.848000 0 0 0
255 1 39.20620881023543 -25.616759935745712 -10.815804 0 0 0
261 1 40.54997783944187 -23.2627260747611 11.130723 0 0 -1
262 1 40.549977838832376 -23.26272607524629 -8.886588 0 0 0
99 1 43.232961938063944 -23.257021408954643 -10.797416 0 0 0